LAMMPS data file via write_data, version 30 Mar 2026, timestep = 50000, units = metal

720 atoms
4 atom types
1 bond types
1 angle types

2 extra bond per atom
1 extra angle per atom
2 extra special per atom

-22.470320800269317 22.470320800269317 xlo xhi
-8.579178758211475 8.579178758211475 ylo yhi
-8.491043517346204 8.491043517346204 zlo zhi

Atom Type Labels

1 Si
2 O
3 OW
4 HW

Bond Type Labels

1 OW-HW

Angle Type Labels

1 HW-OW-HW

Masses

1 28.0855
2 15.9994
3 15.9994
4 1.008

Atoms # full

599 0 2 0 -17.585902679913048 -6.122087503605654 -5.125599209645119 0 1 1
11 0 1 0 -18.983230536630526 -5.6584335374888335 -5.853899709111878 0 1 0
191 0 1 0 -16.806567509884708 -7.036226602228745 -4.012112346946901 1 0 0
583 0 2 0 -19.375370669366287 -4.120750508910165 -5.531772270997756 1 1 1
581 0 2 0 -18.779701960929422 -6.024696335447444 -7.433009701528415 0 -1 0
231 0 1 0 -19.021725630931854 -7.367865662000674 -8.33157180930364 1 1 1
175 0 1 0 -20.46431991434797 -8.241945686601078 -5.897937368636698 1 0 0
367 0 2 0 -20.098417647567224 -6.761276790822614 -5.384664830401702 1 0 1
706 0 2 0 -17.441378256875968 -8.478958633422415 -3.797661901792508 0 0 1
494 0 2 0 -16.099194604252588 -3.620495867982875 -4.084781373290953 0 0 1
564 0 2 0 -19.92333806706064 -8.36199833569609 -7.4661221703136755 1 0 0
664 0 2 0 -17.663207270386277 -8.233311199517777 -8.63915573518819 0 1 1
2 0 1 0 -16.102865431260014 -8.134865027955906 -8.656804516787753 0 2 1
409 0 2 0 -15.765310775044597 -8.078142547842024 -7.039445118490385 0 0 1
419 0 2 0 -15.347081173834965 -7.333434734481693 -4.586512770153858 1 1 0
402 0 2 0 -15.1069391421898 -3.72036696928226 -6.586234915433076 0 0 0
9 0 1 0 -14.70732703104764 -8.071361207672634 -5.830002946595972 0 1 0
611 0 2 0 -11.132943585337392 -5.882188266821184 -6.7545456447312855 0 1 0
113 0 1 0 -11.83594295361253 -7.066893053777726 -5.931981686122805 0 0 0
649 0 2 0 -13.401103079172128 -7.225008254433167 -6.326114179583591 0 -1 1
232 0 1 0 -14.770514801388206 -3.6310943049144546 -5.0217737896396075 1 1 0
467 0 2 0 -13.835667730087248 -4.913852726919711 -4.62756707612001 1 1 1
568 0 2 0 -11.888175061620995 -6.715843843456536 -4.310262218413719 0 1 -1
42 0 1 0 -12.911041602302294 -5.604404657248772 -3.523941872937887 0 0 1
632 0 2 0 -12.791561093865369 -4.134392414271871 -7.521240244048294 0 0 0
14 0 1 0 -14.222775735592398 -3.606009911386934 -7.959050247912734 1 1 2
205 0 1 0 -11.44363463958576 -4.844521280062116 -7.939875460209243 0 1 0
650 0 2 0 -10.13806417500196 -3.9332983848826117 -8.031282263982794 0 1 1
437 0 2 0 -11.15566024655002 -8.496115067053193 -6.322992472491874 0 0 0
106 0 1 0 -8.182074791760254 -7.391439344532149 -4.3005148023531135 0 0 1
304 0 2 0 -7.9231356479726145 -5.427991676213324 -7.735132594890566 0 0 0
119 0 1 0 -7.833539146970692 -5.134218262637716 -6.157438765683995 0 -1 1
241 0 2 0 -8.590999919668747 -6.273255231766063 -5.382600031184967 0 0 0
264 0 2 0 -6.9157179101636554 -8.098795560642236 -5.118775701075941 0 0 1
413 0 2 0 -7.403121113944588 -7.979325796387079 -7.7987383398695425 0 0 2
75 0 1 0 -6.489026654605796 8.532228538789989 -6.593185567319229 0 -1 1
613 0 2 0 -6.263427664556545 -5.0305549607193605 -5.762444547851738 0 0 0
274 0 2 0 -8.413480231865517 -3.6240996916925106 -5.778069398948066 0 0 1
154 0 1 0 -7.470195712495023 -6.607181323319863 -8.728280879754054 0 0 1
652 0 2 0 -4.555164779986331 -4.34062722536915 -7.612491611973209 0 0 1
541 0 2 0 -5.005770450604331 -8.122623283570315 -6.985124282663193 0 1 0
31 0 1 0 -3.5544858826939247 -5.1279623661317935 -4.298429720960732 0 -1 0
156 0 1 0 -5.261461277568067 -4.67208584772837 8.461925870232452 0 0 1
183 0 1 0 -3.740393809943196 8.39654516236695 -7.788817621332313 0 0 0
492 0 2 0 -3.357581072477984 -6.164116204720358 -5.509468790642955 0 -1 2
98 0 1 0 -5.18851566262077 -3.8608257469761016 -6.1476950645697475 0 -1 0
284 0 2 0 -4.03315988599465 -3.7810789932481876 -5.0276589757511445 0 0 1
438 0 2 0 -9.33289699768489 -8.49408269018865 -4.369728027409465 0 0 1
701 0 2 0 -2.414152527506449 -8.075677385138972 -7.192066232302289 0 0 0
173 0 1 0 -2.0806153981714495 -7.064211468190221 -5.922778413328627 0 0 1
676 0 2 0 -0.9247082451750579 -6.062324796136592 -6.387560044770931 0 1 1
537 0 2 0 -1.8149460907505066 -7.830733500501386 -4.429730527084927 0 0 1
105 0 1 0 9.113238887353937 -6.190708289932871 -7.907585158936873 -1 0 0
570 0 2 0 8.89361034571403 -6.5547870965292265 -6.401303384921105 -1 -1 1
560 0 2 0 9.023722133812761 -7.882274086962702 -3.8422737576460833 0 0 -1
127 0 1 0 9.351435420606428 -7.83663984764125 -5.477920844390141 0 0 0
427 0 2 0 10.92982749558783 -7.851112705053808 -5.756601807741596 0 1 1
93 0 1 0 12.497552904386538 -3.370657290683206 -7.486014886870831 0 1 1
499 0 2 0 12.424919062126314 -4.985555852563972 -7.6449473829843235 0 1 1
91 0 1 0 12.316456184455554 -7.1835538072371 -5.414265103483139 0 0 0
531 0 2 0 12.19270373717324 -5.674303489468009 -4.803522743153275 0 1 -1
204 0 1 0 13.13095478741537 -4.666108189503233 -3.943256875633706 0 -1 0
501 0 2 0 14.716737351388822 -5.11905492901524 -4.002809141137503 0 0 0
472 0 2 0 14.067246521808102 -3.2065046147383107 -7.193073435777408 -1 0 0
358 0 2 0 12.878007988313676 -3.0579052497418546 -4.2822878066721035 -1 0 0
717 0 2 0 15.063949589115026 -5.420864229537523 -7.468091034437174 0 0 0
238 0 1 0 13.592484327065478 -6.055475550768644 -7.796848381624555 0 1 0
450 0 2 0 13.208766915456678 -7.188794793070491 -6.737305676090665 0 -1 1
522 0 2 0 12.93486553280114 -8.103108174738312 -4.259828164983613 0 0 -1
223 0 1 0 15.491318453622924 -3.8684006727268514 -7.406967105086959 0 1 0
573 0 2 0 11.568640266138509 -2.7938141733458695 -6.328741524938975 0 0 0
638 0 2 0 16.225818963135353 -7.190866179996585 -3.2174355003592536 0 0 -1
572 0 2 0 16.44191818853713 -3.234522978513631 -6.257069172203597 0 -1 -1
497 0 2 0 21.067081264071142 -3.5694557811781245 -7.5925963780772285 0 1 0
47 0 1 0 19.437124756013027 -6.195135577984242 -5.208852574719737 0 1 0
388 0 2 0 18.135655422466783 -6.703991481492807 -6.147779564710957 0 0 0
718 0 2 0 19.21184258199439 -4.952762168095439 -4.176524187550062 0 0 0
588 0 2 0 20.475401747383764 -5.817273914048216 -6.39161639350636 -1 0 -1
70 0 1 0 20.295455288765353 -5.042370472164821 -7.847900765290785 -1 0 -1
341 0 2 0 19.712368487713974 -7.372816544125444 -4.090836473895325 -1 0 -1
525 0 2 0 18.823376920039166 -4.704066802956975 -8.314024680530748 0 0 1
13 0 1 0 17.544339792966085 -8.165543454520712 -6.730672617298633 0 0 1
555 0 2 0 16.466768530480962 -8.369524219533709 -5.531577420024932 0 -1 1
347 0 2 0 16.815203332357576 -8.38357275776537 -8.116907507607975 0 1 0
510 0 2 0 -20.353334108347376 -1.9531015672931824 -6.614531685098036 0 0 0
86 0 1 0 -19.288355573552753 -2.478233618045854 -5.608731008577251 0 0 1
22 0 1 0 -17.342144366742648 -1.0921280518305574 -7.429945308720621 1 1 0
629 0 2 0 -18.209243497573222 0.2390958837356063 -7.392526270607045 0 0 1
398 0 2 0 -17.855624477645993 -1.959904366959627 -6.194759237290658 0 0 1
89 0 1 0 -18.59880670920184 1.2332294196754425 -6.206441996834646 0 0 0
306 0 2 0 -19.594618035148837 -1.635414278658887 -4.26827075252899 0 -1 1
584 0 2 0 -17.28310877663076 1.476462042924684 -5.217699114814607 0 -1 1
670 0 2 0 -19.814663391796476 0.7000894039051762 -5.355373378200295 0 0 0
145 0 1 0 -20.225402808698416 -0.18696453820929904 -4.106658735213967 0 1 0
371 0 2 0 -19.110598021508792 2.6489605636633833 -6.697843561861699 1 0 0
122 0 1 0 -21.127039540824022 -2.3643823404329947 -7.909730728698835 0 1 0
536 0 2 0 -15.799520304300719 -0.6159360650191994 -7.522474521682857 1 0 0
24 0 1 0 -15.735176337001835 1.5906798589667854 -4.8374229324897415 0 0 1
380 0 2 0 -13.962761005291842 -2.2814805657138635 -4.717423570929572 0 1 1
37 0 1 0 -13.671489543084268 -0.7096456889545362 -4.8129006661625695 0 0 0
578 0 2 0 -13.46785700890258 0.48416758424724726 -8.312767078029177 0 0 0
243 0 2 0 -15.04705411526329 0.13111369608094492 -4.931562152210564 0 1 1
188 0 1 0 -12.320645400581997 0.7011860217488426 -7.205079682760794 0 1 0
694 0 2 0 -10.865898336473498 0.5399306902200074 -7.86388492714046 0 0 0
401 0 2 0 -12.484781967505402 2.108118937054911 -6.455751885764751 0 1 0
265 0 2 0 -12.72686219424419 -0.39931727280289486 -6.055476354971705 0 0 1
357 0 2 0 -12.863701052520742 -0.1652837230163069 -3.52245656244906 0 0 0
397 0 2 0 -15.333232531840446 1.9939692051070868 -3.3335305762663614 1 0 1
689 0 2 0 -10.222952911574515 -0.45794961011687363 -4.235551061404753 0 -1 -1
454 0 2 0 -14.891808395604922 2.677570064804243 -5.802966430245413 0 -1 1
224 0 1 0 -11.30983167149096 0.1471881232013157 -3.254889011757049 0 0 0
248 0 2 0 -11.078318898492737 1.732457354708373 -3.5711838511121865 0 -1 -1
533 0 2 0 -9.034739152523958 2.326821135282266 -7.979266669078483 0 -1 1
621 0 2 0 -8.565808001315505 1.087622086074127 -5.780196322920385 0 -1 1
372 0 2 0 -8.456075953065804 -1.8556676360830364 -7.6260154283564345 0 0 1
683 0 2 0 -6.145805149962586 -2.6083986112004762 -6.4616000057000145 1 -1 0
164 0 1 0 -7.71026547275488 -2.2527339200945544 -6.216497081973745 0 0 0
303 0 2 0 -7.81554095199 -1.2356157349548882 -4.9976113771938016 0 1 -1
21 0 1 0 -8.69739479271751 -0.021088163442168906 -4.547664087024154 0 0 1
193 0 1 0 -8.038035597202258 2.157132824039264 -6.779499092102455 0 0 1
634 0 2 0 -8.221686385046912 0.7604161942042715 -3.235174227975935 0 0 0
449 0 2 0 -4.015216435355914 2.184457780042738 -6.198949990288716 0 0 1
186 0 1 0 -9.321744748481057 -2.7198484063493344 -8.695748611881214 0 1 1
592 0 2 0 6.111508440373434 2.282867626508258 -3.0187343921503924 0 0 0
677 0 2 0 8.427339828608744 0.4461543392508922 -3.873267747613167 0 0 -1
348 0 2 0 7.704790483328836 0.8101527488353959 -8.489616312469364 0 0 1
366 0 2 0 5.278196126266462 1.8525497079847355 -8.061285044845288 0 -1 0
3 0 1 0 11.379130258642967 0.3630696295168061 -3.2111902635174996 0 0 1
579 0 2 0 11.502378510134285 1.7332038880926977 -4.068674214398361 0 1 0
620 0 2 0 11.19646587803173 -1.0140695819341188 -4.022945741239292 0 0 0
49 0 1 0 12.048844947629078 -1.8504011794275366 -5.084571813729028 0 0 0
635 0 2 0 12.764861523276892 -0.6428448261630608 -5.873321003655633 0 0 0
228 0 1 0 14.09798600291586 0.20685089445974825 -6.10184847749242 0 0 0
487 0 2 0 14.188376569289353 1.061390953110946 -7.50789276909089 0 -2 0
556 0 2 0 14.274690036527758 1.2273676509184739 -4.850402860091066 0 0 -1
165 0 1 0 15.06434561084373 1.9686340149698243 -8.526090191652566 0 0 0
447 0 2 0 11.05456763176607 1.2193624464233945 -8.28873681766967 0 0 1
82 0 1 0 10.583114365072475 2.735166998068012 -8.156987786947068 -1 0 1
602 0 2 0 9.876589653809319 3.0722052734307876 -6.754063627223831 -1 0 0
574 0 2 0 15.222110782009523 -0.8852843370330943 -5.962106227399423 -1 0 1
78 0 1 0 15.720604290362097 1.6932855639241335 -4.287215692310658 0 0 0
255 0 2 0 16.685553591658454 2.037037284533854 -5.485786988100983 0 -1 0
547 0 2 0 16.51516077749927 1.3212595910467915 -8.213081646672789 0 -1 0
111 0 1 0 16.620780612322193 -1.6841684456456552 -5.8180168550830516 0 1 0
715 0 2 0 16.229891658799808 0.5616733533612592 -3.3003668758707985 0 0 1
334 0 2 0 21.3338959223368 -0.33352902690083575 -4.04702780160488 0 1 1
610 0 2 0 17.560329041944996 -0.7893733850953977 -6.744979545762763 0 0 0
408 0 2 0 17.059907763845104 -1.6901422910887511 -4.299657869795548 0 0 0
502 0 2 0 20.5033253773627 2.18926921635971 -3.796710743077716 -1 0 0
19 0 1 0 17.442593531483375 -0.5393511059665155 -3.2646879446261785 0 0 0
473 0 2 0 20.979287110534813 1.5532517782301287 -8.419081552483615 0 0 1
27 0 1 0 17.406587009224133 -0.011093573339625351 -8.198323606324488 -1 1 1
575 0 2 0 18.95775694012312 2.1947329264566235 -6.8202503253927835 0 -1 0
138 0 1 0 20.29054414240113 0.650612056358181 -3.362685270363019 0 -1 0
439 0 2 0 21.166066303507513 -1.0910452378590545 -8.512234033126182 -1 0 1
77 0 1 0 20.071318144050068 2.7578231110065783 -7.841191269345699 0 -1 1
32 0 1 0 17.852968882928828 3.0133869139067873 -5.987709371697668 -1 -1 1
282 0 2 0 15.667205607305007 3.0331194924268594 -3.310463364170043 0 -1 0
464 0 2 0 18.771830563267407 0.2719866876051782 -3.6453686865946926 -1 0 0
644 0 2 0 -19.66869776080581 7.950811042625935 -4.904883154922725 0 0 1
115 0 1 0 -18.268630084615893 7.442510258743797 -4.441498186525226 0 -1 0
260 0 2 0 -19.99871043651 5.116552580778613 -6.683209896121421 0 -1 1
153 0 1 0 -16.954301254799457 5.74572895306992 -6.513494546463704 1 0 0
309 0 2 0 -17.585693817935162 4.498686600010101 -5.805416371735871 0 0 0
134 0 1 0 -19.100006861938244 4.029352866910335 -5.929883762794386 1 0 0
270 0 2 0 -17.41754532634887 7.069832018619618 -5.788911340412092 0 0 2
281 0 2 0 -19.606623307648885 3.9646607936870186 -4.409372470421573 0 0 1
618 0 2 0 -17.611736584641264 5.736637763630089 -7.952264581891809 1 0 1
433 0 2 0 -18.351076921257658 6.125190519046553 -3.5974790053937475 1 0 1
142 0 1 0 -21.38600826893929 5.076593969252443 -7.498867013540538 0 1 1
219 0 1 0 -19.313059350068915 4.911839908245939 -3.158689286711022 0 0 0
354 0 2 0 -20.91424036199817 4.766283688324519 8.430024544205594 1 0 0
276 0 2 0 -15.393020596516614 5.690746958199739 -6.617063491879556 0 0 0
364 0 2 0 -14.169649640612235 7.533601506292923 -5.504633377695347 0 -1 1
720 0 2 0 -13.16707091348759 4.8020857128635015 -5.949646625740929 0 0 0
208 0 1 0 -13.577055965437593 3.3293729410286215 -6.4850200375466365 0 -1 0
546 0 2 0 -13.95797357464561 3.7236189562037634 -8.04714012807722 0 -1 1
51 0 1 0 -13.863894470107315 6.209425762724596 -6.438319710053349 1 1 0
518 0 2 0 -13.340704298011472 6.708879984701577 -7.8637116381978 0 -1 0
603 0 2 0 -13.295445248741808 3.5261220376238924 -3.353834380916587 0 0 -1
333 0 2 0 -11.067232452471842 6.649387026367027 -4.631567162600943 0 -1 0
84 0 1 0 -10.60005584357659 5.921391908266681 -3.311552306106516 0 -1 0
52 0 1 0 -10.16588176444282 7.712756830005164 -5.454427177012704 0 -1 0
216 0 1 0 -11.77428268130357 3.1013273559891577 -3.0829287543565496 0 0 0
342 0 2 0 -10.959320781081303 4.342104181035758 -3.6070367382880324 -1 -1 0
279 0 2 0 -6.500546760266284 2.5230462492902532 -6.747125547364921 0 1 0
278 0 2 0 -8.493137079487235 3.2477527528939802 -3.5831749162118047 0 -2 0
431 0 2 0 -9.026908322880633 6.963464519148765 -6.35297986565301 0 -1 0
283 0 2 0 -8.958998606424503 5.85525976918448 -3.172833178505509 0 0 -1
140 0 1 0 -7.75230448178044 5.977251001276935 -6.4243682802238045 0 0 0
640 0 2 0 -7.555417433736594 5.018843317182537 -5.132778314796389 0 1 0
182 0 1 0 -7.898136747062722 4.72481769678817 -3.622879354377597 0 -1 0
422 0 2 0 -7.789726800187331 5.144583294871081 -7.730452501811616 0 0 0
365 0 2 0 -6.344831765100206 6.943330277578616 -6.41334719687198 0 -1 1
598 0 2 0 -3.841955559480038 6.8464292992549876 -7.2140651893515315 0 -1 1
28 0 1 0 -5.002341451354194 3.213350198153984 -6.8620863915172405 0 0 1
399 0 2 0 -4.9112248511529835 4.695323128636899 -6.177099749198389 0 0 0
136 0 1 0 -4.754930659492526 6.275492714026255 -6.072420194347999 0 -1 0
523 0 2 0 -4.3102537290427065 6.8730727287000875 -4.59654960278103 0 1 0
432 0 2 0 -4.719998229286592 3.4758124226646387 -8.51784761686844 0 0 1
647 0 2 0 5.473584206033841 3.0880139040736694 -5.619469112885032 0 -1 1
167 0 1 0 6.297747001133708 3.3023232820617476 -4.23383511633247 0 0 1
128 0 1 0 9.036210478969554 3.8762277261657605 -3.5214075127206677 0 0 0
639 0 2 0 6.002520870369057 4.719372221965253 -3.5413080003946575 0 0 1
242 0 2 0 7.931205730953131 3.4202306018988065 -4.66713068567767 0 0 1
312 0 2 0 7.171095649771814 6.735042602825583 -4.565671928559259 0 1 0
295 0 2 0 7.343402210206385 3.2302552261560837 -7.20723450450718 0 1 0
166 0 1 0 8.505585561472714 3.7692606037704444 -6.311530913882143 0 0 0
496 0 2 0 8.829365846992477 7.981231881712079 -6.181196295700255 -1 0 0
393 0 2 0 8.589517610418913 5.379218805164461 -6.289222234190959 0 0 1
641 0 2 0 6.751625058329346 6.755323521042209 -7.2176793350605815 0 0 0
116 0 1 0 7.843485976979387 6.77604252135578 -6.050241281411232 0 0 0
544 0 2 0 8.504331651721216 5.229425259657148 -2.9432845841945365 0 -1 0
168 0 1 0 7.040379214450233 5.9345441621511075 -3.1907082870533134 0 0 0
197 0 1 0 5.725392437968129 3.1056361169358713 -7.1608787796527045 0 0 0
660 0 2 0 5.473820939686277 4.5193938322141545 -7.985000169048902 0 -1 1
107 0 1 0 6.497956734916372 5.6675418718578765 -8.371564078085418 0 -1 0
268 0 2 0 10.455024546055235 4.135308067179581 -4.222753665337764 0 1 0
95 0 1 0 11.830184546839739 3.3101316806096523 -4.042898529549617 0 0 1
379 0 2 0 10.848839942249143 7.5278928930483975 -3.2646119592754888 0 -1 1
425 0 2 0 15.05681642378294 3.537599584257679 -8.178748444529239 0 1 0
355 0 2 0 12.825259405591197 3.89784825106212 -5.142573855131773 -1 0 0
286 0 2 0 12.38758635112604 5.795639699762793 -7.083657782635427 0 -1 1
642 0 2 0 14.780690338119562 5.19550573692743 -6.052081084340518 -1 0 1
110 0 1 0 12.378032229368678 7.560212143225412 -3.617967429918078 0 0 0
375 0 2 0 12.707258924434946 6.419032872062159 -4.652588985624711 0 0 1
6 0 1 0 13.215463440224589 5.359595731570183 -5.755365393370095 0 -2 1
94 0 1 0 11.838039587598892 5.2865569590384585 -8.500825355709333 0 0 0
411 0 2 0 20.22043923640213 -8.337297332470094 -8.17209230488367 0 1 1
20 0 1 0 15.73186985562917 4.782305906581415 -7.348713976469826 0 0 1
250 0 2 0 15.44527004728981 7.41154483091395 -3.697547300870326 0 -1 1
477 0 2 0 15.97844809288889 6.167182413711068 -8.189761477899681 0 0 1
50 0 1 0 16.55617755477602 8.518209508896595 -3.9606412290831976 0 0 0
389 0 2 0 17.164740286067534 4.21199130860259 -6.845567586419281 0 0 1
471 0 2 0 21.220693548603208 8.345151452602712 -5.914040152386138 0 0 1
585 0 2 0 20.89037884114743 3.8485763104283226 -7.031371547672133 -1 0 1
704 0 2 0 18.676732296030153 7.815544664148254 -6.518676375202308 0 -1 0
453 0 2 0 20.749525637376422 6.305905492859965 -7.392986778470275 0 0 0
45 0 1 0 20.221508109285153 7.721324571107607 -6.952292889356841 0 -1 1
643 0 2 0 20.68580505440763 4.839997475079999 -3.816253754916552 0 -1 0
257 0 2 0 18.578772650244062 3.653860996909465 -4.682356226989502 0 0 0
185 0 1 0 19.71716526556223 3.5566511505715024 -3.591504267452529 0 0 0
337 0 2 0 20.556337832637688 7.426240734275108 -3.279060371621611 -1 0 0
53 0 1 0 19.424368615067337 8.510955209309971 -3.055968019760299 -1 -1 0
548 0 2 0 17.944912240367238 8.00300666298009 -3.3607166711369016 -1 0 0
56 0 1 0 21.107119500323485 5.950155324824005 -2.7959158636689 0 0 0
656 0 2 0 -16.98784781549155 -6.414323733000288 -2.5716053754564214 0 1 0
679 0 2 0 -19.625833552114663 -4.762611258856251 -0.12452699795723454 1 1 1
590 0 2 0 -17.425760949132023 -3.4067187606433054 0.7230889759669505 1 1 0
221 0 1 0 -18.00593431097501 -4.5035621383978475 -0.2852018946409878 0 1 0
673 0 2 0 -17.263330304915836 -5.966455575897694 -0.10212196883124314 0 0 0
126 0 1 0 -16.99943701806662 -7.149569282344585 -1.1481204737319501 1 0 0
68 0 1 0 -20.901480404132883 -5.682481807454776 0.3641066106802189 1 2 0
363 0 2 0 -17.780753290755793 -3.8944384594363655 -1.7533525183992724 1 1 0
658 0 2 0 -20.381713066460925 -6.785063873279181 1.392621321770628 1 1 0
66 0 1 0 -16.51835142414266 -3.228763857591935 -2.5466090759213884 1 2 1
206 0 1 0 -20.3891778675818 -7.780454886461039 2.653508459571686 1 1 0
655 0 2 0 -15.729057672500273 -7.850798819724959 1.9396391336289032 0 0 1
390 0 2 0 -18.042344694749676 -8.396685346709551 -0.8629806714754249 0 1 0
244 0 2 0 -20.246217903098543 -4.404288891112213 3.109852424537266 0 1 0
582 0 2 0 -15.52668195942132 -7.722678817894354 -1.1013558324768908 0 -1 0
458 0 2 0 -15.244071455596204 -3.6010641651145594 -1.6421215008329728 1 1 0
563 0 2 0 -13.690302964020903 -6.3583903481502455 -2.3578757846672005 0 1 0
508 0 2 0 -13.789461177618488 -4.076110995696274 1.7839948986982197 1 0 0
703 0 2 0 -12.149921756212542 -6.182250595149363 2.0083110498682792 0 0 0
465 0 2 0 -14.03719929763174 -6.134897946713867 0.21894392042667654 1 0 0
179 0 1 0 -13.00674762111822 -5.160094719156805 0.8921142189304341 0 0 0
141 0 1 0 -14.046334117576553 -7.158310966339351 -1.0325409131066356 0 0 1
251 0 2 0 -11.916712489116366 -4.553312578450709 -2.8094845959868175 0 0 1
322 0 2 0 -11.97270125049998 -4.678302730711188 -0.19809015018317666 0 0 0
420 0 2 0 -13.051121694515032 -8.44785708085578 -0.8208029447122085 0 1 0
198 0 1 0 -11.521531877048544 -3.7713000365195626 -1.4260323653266305 0 1 0
507 0 2 0 -9.862537178770019 -3.784863486126129 -1.3827077548137519 0 0 0
83 0 1 0 -12.493621071285645 -7.630209292490925 2.7584878206589813 1 0 0
381 0 2 0 -9.376304327854728 -4.159247927519182 1.2007831129805258 0 0 -1
118 0 1 0 -9.527106629130346 -3.58347193659751 2.670113790662123 0 -1 0
441 0 2 0 -4.824897960450855 -7.881548780907724 -3.224718479111134 0 1 -1
406 0 2 0 -4.71253894731473 -5.4147762891076905 -3.2056713129947756 0 -1 0
275 0 2 0 -8.011189362261684 -6.686906838182362 -2.9051272459211805 0 0 0
517 0 2 0 -8.006098649254438 -8.47725072513112 -1.062603600918985 0 1 0
102 0 1 0 -7.723497677151554 -6.934149560275329 -1.3426543013555632 0 1 0
226 0 1 0 -8.82024944470966 -4.3438244014402585 -0.2962793519869269 0 0 -1
361 0 2 0 -8.665622672519739 -5.952653118499826 -0.4862252137038414 0 1 0
648 0 2 0 -6.152795072783643 -6.627338704486016 -1.2231655317812224 0 1 0
527 0 2 0 -5.855468800001079 -6.857879778990326 1.878463792965805 1 1 0
100 0 1 0 -4.901339100528816 -6.613359497268086 -2.192974794039352 0 0 0
657 0 2 0 -4.118492802888429 -5.13323699534916 1.0886341836462776 0 0 0
36 0 1 0 -4.955492239865418 -5.594896458545285 2.390593102254863 0 0 0
712 0 2 0 -3.60541228069064 -6.588533798577157 -1.2060026854749877 0 0 0
566 0 2 0 -3.1668017800331896 -7.550615216701523 1.1425373254227082 0 0 1
421 0 2 0 -7.432773993578969 -3.5858318553789825 -0.5552388212617192 0 0 0
46 0 1 0 -5.805353335615907 -8.46091625239067 1.5590397992372615 0 0 0
616 0 2 0 -2.1883601323150046 -5.556176272144146 -3.416808723677897 0 -1 1
217 0 1 0 -3.152885335076931 -6.2072839582974115 0.29567904570660275 0 0 0
196 0 1 0 -1.7474768065771222 -7.037426705876274 -3.057964528423293 0 0 0
369 0 2 0 -1.599300634146175 -5.881514217521046 0.10301108591862729 0 0 0
678 0 2 0 -0.9870324638197978 -7.495262208593589 -1.7832565439080241 0 0 0
218 0 1 0 -0.48646782185934967 -6.97506185705654 -0.2827889032432278 0 1 -1
714 0 2 0 -0.7817405120266514 -8.269568717503072 0.7534796565648136 -1 0 -1
318 0 2 0 0.9896006456719455 -6.469940042728431 -0.2767112448119793 0 0 0
513 0 2 0 10.67361971402331 -7.582842142131697 -1.6123944950769458 0 -1 0
661 0 2 0 10.576344721167587 -4.7234022430561 1.803205607572849 0 0 0
475 0 2 0 10.713141312562513 -7.234329315378302 1.0484577960698154 0 0 0
190 0 1 0 11.042143647174342 -3.3082039767480795 2.394781426752896 0 1 0
60 0 1 0 10.66948161228511 -6.2673009388220855 2.3048564749858187 0 0 -1
410 0 2 0 12.719217051335185 -4.941974059588335 -2.353437705917976 -1 1 -1
352 0 2 0 12.820493585914058 -6.850161239888406 -0.412648161694662 0 -1 -1
435 0 2 0 14.946158802114368 -5.744511848297398 -1.5061773888092116 0 0 0
143 0 1 0 13.457500567074383 -5.480787709021604 -1.02131063063114 0 0 0
79 0 1 0 13.560362263247583 -2.9289267214194217 0.6485556505195369 0 1 -1
317 0 2 0 13.488620926259593 -4.3694517464526115 0.05546693382020962 0 0 0
67 0 1 0 11.471503693688767 -7.841381585222413 -0.2606858493946085 0 1 0
247 0 2 0 12.334391529479156 -2.74913101704367 1.6302507569718028 0 1 0
571 0 2 0 14.715897945542075 -6.430486317230379 2.9681532621008184 0 1 1
272 0 2 0 14.99037833495916 -2.7819014167591343 1.3710364889646858 0 1 0
667 0 2 0 12.02967334718953 -6.433471194875135 3.103583535658027 0 0 -1
1 0 1 0 15.725294236295454 -5.69244622582314 -2.9015464400133713 0 0 0
561 0 2 0 17.01168990271065 -4.696324044336939 -2.807324599068769 0 1 0
181 0 1 0 18.619620523250674 -4.666485450643917 -2.6785774023398634 0 0 0
172 0 1 0 21.32155548880928 -4.199959857142964 2.644228544945305 -1 1 0
516 0 2 0 21.32426630174654 -4.621179211369689 1.115907617622982 0 1 0
625 0 2 0 16.336975597000396 -5.023237982434784 1.4785279273348877 -1 1 -1
132 0 1 0 16.19467186796666 -5.7799977060613354 2.8441421672125635 -1 1 -1
71 0 1 0 16.473248137647943 -3.4127166658622583 1.1638054357547123 0 1 -1
512 0 2 0 17.089899201418802 -3.093152323771596 -0.2823201701063045 0 0 0
606 0 2 0 17.329299467182885 -6.8991726157195385 2.884623717291939 -1 1 0
680 0 2 0 21.223534870044062 -6.4437503449770555 -0.5815970823384191 0 0 0
80 0 1 0 19.653661243638126 -6.919126923829262 -0.6254191455670224 0 0 0
551 0 2 0 18.86150470291657 -5.706866664209196 -1.4113804800297354 0 1 -1
713 0 2 0 19.046412341244178 -3.2409544980708507 -2.106812944525416 0 1 1
595 0 2 0 18.966331931239303 -7.326498023712362 0.8455673881911601 0 1 0
609 0 2 0 17.45859215267567 -2.9205826023598345 2.3187650800618744 0 0 -1
558 0 2 0 19.4586200167492 -8.185723035973375 -1.5358800061954847 -1 1 0
30 0 1 0 17.799594022293476 -8.033865147330193 1.8060914069595349 0 0 -1
601 0 2 0 -19.736113582319973 0.7150682327340387 -2.7847393324253886 0 -1 0
44 0 1 0 -16.98968148709488 -0.6736358234100663 -1.3545855922048844 1 1 1
480 0 2 0 -16.9099037334223 -1.7026999149370745 -2.5507608537340314 1 0 -1
368 0 2 0 -18.107907484544015 -1.218827315139313 -0.20591492589803373 0 0 0
135 0 1 0 -17.926806750832256 -1.9150404665421314 1.2519832727917581 0 1 -1
708 0 2 0 -17.49693364727285 0.8195990392501393 -1.7369666655878806 0 0 0
65 0 1 0 -18.899640236642888 1.5610548214739204 -1.7110890652024082 0 1 0
253 0 2 0 -19.249780260639017 0.8313081463131926 2.216202648488693 1 0 0
682 0 2 0 -17.20605666726516 -0.6121514044255081 2.0299609647410897 1 0 0
254 0 2 0 -19.36978926261363 1.8802293855394563 -0.2494761157079477 0 -1 0
174 0 1 0 -20.13835960521098 1.542739683588536 1.1481159853046066 1 0 -1
331 0 2 0 -19.062706611117363 -2.286867758495017 2.395747116737475 0 1 0
462 0 2 0 -15.56140605936963 -0.6057854323361216 -0.7287784702191278 0 1 0
654 0 2 0 -21.429946121102816 0.6899871988960413 0.687491619073958 1 -1 -1
220 0 1 0 -17.816743205643323 0.6614850768241407 2.9522134864240908 0 0 -1
356 0 2 0 -17.08198978297126 2.210944493202348 2.7029233262534635 0 -1 0
697 0 2 0 -14.47852015082003 -0.962935703506786 1.6288147679246414 0 1 -1
529 0 2 0 -12.203319852765624 -2.3621975211236848 -1.2035077804135401 0 0 0
160 0 1 0 -14.568748607866553 -0.03148346334629615 0.38029825733717537 1 0 0
123 0 1 0 -11.905542920850865 -0.9274149598650014 -0.5570700686349355 0 0 0
554 0 2 0 -15.211997566226971 1.4119760550319942 0.7335155405366063 0 1 0
520 0 2 0 -13.079929561200887 0.10121625362224052 -0.21835296857571507 0 -1 -1
509 0 2 0 -10.982116373907532 -0.25464581251585905 -1.7052082088021727 0 -1 0
688 0 2 0 -11.219163760089303 -1.2661879295064704 0.9434314028182769 0 1 0
16 0 1 0 -10.16424660343257 -0.8351366389618775 2.067822060115361 0 -1 1
294 0 2 0 -9.136630780390567 2.36829747024513 -1.1187206975193664 0 0 0
263 0 2 0 -9.230202718955624 -2.019449033455656 2.5679723703676878 0 0 0
15 0 1 0 -8.644662292464085 2.096385127780051 -2.540236730922821 0 -1 0
483 0 2 0 -9.299861219957469 0.389167249618378 1.5781091773930331 0 0 1
125 0 1 0 -9.835655186206155 1.7305210170696395 2.0949496270679617 1 0 1
133 0 1 0 8.81827243371988 1.1358252965450095 -2.522283623345456 0 0 0
671 0 2 0 9.191554090182446 2.680049118142742 -2.5621971972491497 0 0 -1
481 0 2 0 3.887154255091005 2.7745336320188585 1.56564044535582 0 1 1
161 0 1 0 6.5169827499807695 2.1956691578686662 -1.4835258918004044 0 0 1
327 0 2 0 7.649000325839914 0.9978589046285808 -1.396953712691401 0 0 0
81 0 1 0 5.375213574349395 2.4656063412784324 1.1291144133735997 0 0 1
539 0 2 0 5.389326233326862 2.027169061357986 -0.40822088546458524 0 1 -1
298 0 2 0 6.047261517538853 1.2281751184877123 1.9031911678129383 0 0 0
709 0 2 0 8.393287659169818 1.9982787433097648 2.9537159668520623 0 -1 0
245 0 2 0 7.693937815954218 -0.5960251669049352 2.684517171617193 0 1 1
33 0 1 0 7.119034310882817 0.9969939188109631 3.011035810643717 0 0 1
120 0 1 0 8.488277099438996 -1.852838528670862 3.0457822021590975 0 0 0
235 0 1 0 9.488646591087523 3.040929350130652 2.4646917261814583 0 0 1
293 0 2 0 10.168369923726772 0.3777253526359665 -2.088566526920175 0 0 0
383 0 2 0 9.847397991077223 -2.2105050957084753 2.3677833675010795 -1 0 0
486 0 2 0 10.784442812241288 2.0650769980015955 2.207078640241324 0 1 -1
210 0 1 0 12.135476842860541 1.6795041250543754 1.3450494523416747 0 0 0
716 0 2 0 12.000129912513636 0.2694555664994258 0.5651941404571641 0 0 0
314 0 2 0 13.492473086931554 1.7816521392068374 2.221995781369518 0 -1 0
591 0 2 0 12.600957572275348 0.14384831962927613 -2.1362192913463183 -1 1 1
5 0 1 0 12.615794500353239 -0.4277745075246795 -0.6857401558223266 0 1 -1
600 0 2 0 12.05303275917133 2.761241969140949 0.12814103305332303 0 0 0
593 0 2 0 13.411215363448846 -1.734934178137367 -0.43690171809337564 0 0 0
668 0 2 0 14.278848048884285 3.122010867969271 -1.0842004625434347 0 0 1
35 0 1 0 18.296498047221718 -2.303132153591484 -1.0425457541485033 -1 0 0
698 0 2 0 19.100353051734537 -1.5810929551774349 0.2267927468167361 0 0 0
436 0 2 0 17.607544163654936 -1.0424652350051593 -1.7604048921815298 0 1 -1
55 0 1 0 20.51748423752943 1.3158596223816197 -0.242564566660306 -1 0 0
565 0 2 0 20.41056538097579 0.5346580363901108 -1.6752868043802085 0 -1 0
604 0 2 0 19.212807905263375 0.959952426108746 0.5863546128399975 0 -1 -1
237 0 1 0 18.87921493139966 -0.43849416410724906 1.2311954803954972 0 0 0
511 0 2 0 18.356527469846988 -0.6191358035592804 2.7037496487018817 -1 0 0
287 0 2 0 -16.783594428755805 3.2870765563408337 -0.47588631909331625 0 -1 0
617 0 2 0 -20.76055034088248 7.913602193910359 1.9914250967422316 1 -1 0
252 0 2 0 -20.496846227421024 5.702317902725715 -2.488771783147852 1 0 0
201 0 1 0 -20.707812365351472 6.7080145863304725 0.969151693061054 0 -1 0
594 0 2 0 -19.454309395368213 6.737159141129775 0.030988365292241582 0 -1 0
302 0 2 0 -17.226929978245316 7.252342802044355 1.1773915711446516 0 -1 0